# vtk DataFile Version 4.0
hesp visualization file
ASCII
DATASET UNSTRUCTURED_GRID
POINTS 800 double
4.62817 6.73320 6.82281
5.32602 5.69765 4.24432
5.43976 4.38082 7.15229
7.42480 4.15724 5.72712
6.40992 4.23856 4.50996
7.62483 5.30089 5.29115
7.33100 4.13661 7.29684
7.46312 4.76604 7.20432
4.64404 7.31539 4.79836
7.65672 4.92959 6.51699
6.72091 4.71348 6.82770
6.50936 5.73244 7.51801
5.87288 5.53734 5.19737
4.28465 5.89978 5.90489
7.44955 6.68407 6.45339
6.59578 5.42274 4.20271
4.21586 7.50563 7.77216
7.91986 7.33919 4.72198
7.17709 4.32970 5.24854
5.75927 6.30035 6.43129
4.78233 6.90425 4.31069
6.00174 5.87209 5.48212
4.87766 5.66719 4.90162
7.64251 6.88263 5.00467
5.08639 4.08290 6.15229
7.37200 5.77663 7.77426
5.06991 7.24038 6.47614
4.44044 4.77777 5.75852
5.01958 6.77852 5.09965
6.87144 4.48784 5.17231
4.33962 6.39939 4.08556
4.12430 7.35638 6.44526
5.41570 5.44323 6.61546
6.36506 4.74131 5.81617
6.69686 6.72279 5.75322
5.01191 4.24937 6.35253
5.88518 6.01343 7.22644
4.58854 7.18663 7.08565
6.25648 6.15962 4.87168
7.85962 4.67437 4.67580
5.71218 7.02797 7.96872
6.69962 6.52516 7.30752
7.25610 7.11529 4.69616
4.27994 5.51491 4.16981
4.03952 5.22578 4.88134
4.53773 6.71942 5.81149
4.78185 6.12516 5.72330
6.68166 4.54627 5.11111
5.80320 4.27343 7.23131
4.05627 5.57614 7.24879
6.09391 5.70272 6.70748
7.40352 5.01514 5.88068
5.29001 7.48578 7.51416
7.89227 6.37909 6.54432
5.76048 4.97234 4.15255
7.98144 6.67215 4.69014
7.30220 5.26860 7.77727
7.12632 6.51759 4.97728
6.90207 6.36893 7.38670
7.42823 5.41355 7.40150
5.15402 4.51095 7.94568
4.47783 7.66673 6.70638
4.56647 6.17971 4.98458
6.35615 6.65251 7.44211
6.49588 4.16233 5.49372
7.88910 4.89132 4.04127
6.65195 5.54996 7.65445
5.36013 6.03743 5.36143
6.51619 6.82062 4.05934
7.75605 4.03319 6.79951
5.25611 5.93446 5.18855
5.67499 7.78397 7.18116
7.29516 5.75402 6.48800
6.76701 4.49037 5.72719
7.68248 4.61247 7.32146
6.63804 4.48203 7.67636
7.38625 4.40608 6.28930
7.37258 5.09326 7.91812
6.54803 4.68773 5.31417
4.88668 4.33467 7.77876
4.42476 5.89214 6.68096
5.84594 5.29031 6.29322
7.30579 4.25987 4.43313
7.04946 6.94566 7.88078
6.10424 6.19471 7.88565
7.48883 7.61968 7.52588
7.89818 4.16514 6.17150
7.29501 4.29015 6.82437
7.44295 5.86274 6.37601
5.63839 6.24795 4.10185
7.84458 5.45436 5.93372
4.75752 5.98470 5.01041
7.79135 5.63832 7.80911
5.42325 5.43675 7.06855
4.23616 7.49992 5.51195
7.94919 6.36323 5.78937
7.77395 7.08820 7.60644
7.17479 6.05862 6.48826
7.94201 5.49425 7.49192
4.60643 6.59478 7.28130
4.72120 6.89486 6.14046
6.33653 6.80289 6.17605
4.21493 5.48599 5.91413
7.42156 5.28150 6.75060
5.11615 6.32182 4.05144
4.46852 6.92787 5.61517
4.99340 6.57277 4.95987
6.02350 4.84486 6.83049
5.74545 4.67449 6.85287
5.72187 4.17963 7.59612
7.01441 7.86296 7.02848
7.68879 6.80291 5.58837
5.78981 5.77016 5.50162
7.36189 7.05816 5.07819
4.67781 4.21555 7.19095
4.77547 4.72487 7.61860
4.52680 5.46413 5.13598
7.56535 5.51659 7.86472
6.37414 4.54007 7.62735
6.78404 6.35641 5.37022
6.50658 4.65469 4.31556
5.34497 7.48593 5.66807
6.79413 4.49543 4.23891
6.55547 7.80229 5.06916
6.83522 4.45174 7.38495
5.75869 6.17399 6.73320
6.31064 5.18187 4.37024
4.72263 5.92364 6.19160
6.58618 5.67535 5.13862
6.09424 7.83437 4.66449
7.74470 7.00964 7.09599
4.99111 4.46539 5.53297
7.79936 7.15246 6.94455
5.06519 5.68809 6.96090
7.16444 5.04612 6.06608
7.47199 4.30013 7.15805
5.56958 7.08842 4.97037
4.32625 4.63970 7.93874
4.46608 7.98597 5.16383
4.50719 6.48156 5.96291
5.52460 6.04877 6.70858
7.99435 6.59319 4.11986
6.65384 7.51208 4.04227
7.17926 7.41395 6.46733
5.57949 5.52091 6.23835
6.96039 7.65606 4.41002
4.50503 5.72388 7.02501
6.30014 6.33724 4.07495
6.36387 6.88543 7.26001
6.02087 5.64864 4.40218
7.94461 6.89614 7.97088
5.22491 5.43123 4.25055
6.72224 6.58717 6.29942
7.07894 4.82965 7.54974
5.05243 6.82516 4.82940
7.62252 6.40649 5.18347
7.65146 5.64491 6.62455
6.98050 7.07557 6.90241
4.91223 6.75158 6.88465
5.56856 6.43427 5.03944
4.52851 7.22516 7.89971
6.48526 6.26525 6.91229
5.94847 6.60755 5.86940
7.59822 7.56803 5.81052
6.54246 7.33122 5.12217
5.82547 4.40341 6.06882
7.20320 7.50738 6.02654
6.77952 7.49732 5.81281
5.89971 6.84364 5.90029
5.68400 7.13995 7.71336
7.96964 6.24688 6.93043
4.74975 7.39114 5.55608
5.66141 6.69091 6.54545
6.14328 4.79645 6.57856
4.79562 6.70641 7.35146
5.11137 4.99262 6.38345
5.23470 4.51158 6.75833
4.63667 5.54347 7.00788
6.38000 5.64308 5.79743
5.09176 7.96531 7.21864
7.33861 5.02667 4.58703
7.01496 6.44990 5.61838
6.50062 5.17323 4.84489
4.24024 5.92072 7.23315
5.37322 5.20044 4.77928
7.86974 7.33324 5.73787
7.24948 7.92995 7.92824
6.75860 6.39350 6.78858
5.99946 4.06107 7.96717
7.06272 5.27379 7.98820
7.87862 6.37229 4.27646
5.30356 5.45480 7.68425
5.51420 5.81598 7.57943
7.32668 7.58048 4.65801
7.61617 4.19213 4.14368
6.56763 4.77093 5.61685
6.66001 5.30038 6.36889
4.76037 6.28719 5.09043
6.27254 6.22470 5.77511
5.83515 6.84268 5.68105
7.32711 6.84243 6.28715
6.81919 6.35491 4.95514
6.31704 4.74300 4.84818
6.91048 5.44629 7.42115
7.47090 4.02250 6.39933
6.98337 7.61727 4.83308
5.99862 7.96013 5.47337
6.77754 7.78774 7.18705
5.18627 6.18505 4.99091
7.65364 4.29077 7.93900
7.76924 5.44045 4.27408
4.04710 4.11658 6.39579
5.78538 4.22271 5.86274
5.90824 4.58509 5.87650
6.13111 4.70440 7.33491
6.67036 4.90059 5.26620
4.82161 5.42260 7.68554
4.88482 7.96491 4.56659
4.13426 4.61618 4.32937
5.95158 5.95627 4.62404
6.57932 7.58859 7.88447
4.51460 6.93087 6.99999
6.54401 5.55445 5.30110
6.91050 4.00698 6.54451
4.55129 5.16733 6.12877
6.62437 6.35624 5.65061
5.68564 4.42491 6.99865
6.98835 4.90595 5.38648
5.89357 7.21670 5.37714
7.68736 6.31833 7.79756
4.37582 7.35560 4.19115
4.37782 5.48030 7.15628
6.24617 5.58073 6.30639
5.78883 4.38394 6.42316
5.82561 7.34743 4.17760
5.33336 7.02719 6.25564
5.64563 5.85327 4.59106
4.75467 5.66265 6.35225
5.86924 7.89415 7.43626
5.38476 5.13434 6.30420
4.94634 7.97414 5.13311
4.04717 4.91234 5.38899
7.94709 5.95353 5.79806
6.80134 4.36327 6.12601
6.75271 5.59829 7.37701
4.99993 7.61293 4.84037
4.75796 4.51536 4.74489
6.84236 6.81972 7.76729
6.49248 5.47971 6.32111
7.03119 6.44708 7.53531
6.29869 5.25586 6.97219
6.99623 7.84745 5.15220
6.61583 4.09555 6.72219
5.05512 7.09478 5.95292
5.41377 7.52181 7.94730
4.13877 6.36748 5.25014
7.79410 7.09757 4.78942
7.46048 4.42887 5.39355
5.39566 6.81637 5.36240
6.65282 7.23623 7.19104
4.87303 5.78279 7.54683
6.25364 4.99955 5.73268
7.35070 6.13525 4.23273
5.99597 5.64334 7.19942
4.86977 4.62467 7.94455
7.41097 6.54690 6.64553
6.16453 7.13616 7.82687
6.21702 5.47051 7.14535
5.41719 6.93024 6.02941
7.76091 6.25577 5.97920
4.84075 6.12062 5.17635
5.54366 7.26289 7.17287
6.93895 5.49659 6.66755
6.79310 6.52427 7.69982
4.38672 4.54887 6.98246
4.92311 4.61184 4.42456
6.19128 7.43024 6.73358
6.29885 6.78090 7.66837
4.13601 6.00499 4.46006
5.97625 7.56170 7.74499
5.38692 6.24421 6.32549
4.08889 7.61079 5.38154
7.63316 5.50015 6.44831
5.15321 5.24328 6.74584
5.99894 5.07963 4.66778
7.46476 5.42748 7.08358
4.55466 5.29761 5.80180
7.33468 5.54609 7.24654
6.87810 4.49467 4.55787
6.76793 5.24840 4.05480
6.18227 7.28496 5.13917
7.28883 5.54853 4.24613
5.20287 6.48777 5.74360
7.47461 6.99500 7.07367
7.63126 6.69311 7.75657
4.66576 4.47593 6.93080
7.06759 4.60287 7.58553
5.40567 6.84246 7.12242
5.05254 4.02555 5.58036
6.38359 5.98188 4.87571
4.38200 6.95258 4.93002
6.74732 5.96124 6.48293
6.31711 4.03945 4.32511
5.63193 5.41970 5.98320
4.24562 6.94332 4.10218
6.22196 7.63219 4.11484
5.74965 6.23306 6.95397
5.20347 5.94509 4.00228
4.92490 6.00795 4.75525
5.85083 6.95163 6.92624
5.49059 7.44746 5.06036
6.78945 7.79766 7.68726
7.83125 7.03653 5.98499
7.54592 7.50704 6.76624
7.28195 5.68024 6.81119
4.53251 6.13112 6.38081
7.39945 7.52831 4.87069
4.42072 5.03823 7.35416
5.05713 5.94112 5.82856
4.39631 6.41629 7.50291
4.57187 7.96117 4.69321
6.92769 4.63508 6.67170
7.21901 7.34268 7.53518
6.85795 6.64459 5.52021
5.86553 7.20764 5.81770
6.31889 6.91077 4.05525
7.88181 5.82366 6.47494
5.32767 5.65625 6.78343
5.96078 7.45770 5.79382
6.06481 6.26356 5.92561
5.77534 5.68574 5.84190
7.55368 4.58106 6.97448
6.01142 7.24040 4.59139
7.48824 4.15166 4.72563
6.30771 7.00096 5.27415
4.35125 4.27737 5.77855
7.68689 7.88482 6.40010
4.50659 4.08255 5.57600
5.65201 4.61507 6.31958
5.97577 4.60428 4.19846
7.84558 5.58856 5.40674
6.07707 5.08645 6.83987
7.89698 7.48037 5.31163
5.37708 7.88185 6.75497
5.37152 7.14913 6.94177
5.48931 4.01942 4.81829
4.16416 7.23152 6.26333
4.31261 5.85866 5.16487
6.54232 5.59908 4.53024
7.36871 5.92493 5.42056
4.63143 5.52285 4.91403
7.02488 4.23830 6.91735
4.09516 5.77155 7.46891
6.18729 4.37467 7.58444
5.87020 4.17247 4.70641
5.68103 5.47657 4.19994
7.58749 6.42672 4.68285
5.47427 7.25092 4.82483
4.67522 6.19198 6.76497
4.36911 6.88596 7.37805
7.65110 6.35366 6.14956
4.73060 7.82209 7.18356
7.02239 7.82780 4.92896
5.37914 5.48656 4.38941
7.85477 4.71529 4.15933
4.84035 6.96611 4.95077
6.55687 5.45486 5.61804
7.32987 5.44917 5.96783
5.69493 7.69561 5.71781
6.89613 7.41612 6.87835
6.48733 6.53000 4.37437
4.53173 4.02849 6.28101
7.71606 6.63817 5.11934
5.18280 5.43644 5.75545
7.46021 5.58439 5.70531
5.89478 6.74934 6.39959
4.02297 4.59265 6.45390
5.55301 7.64775 6.62638
7.93371 4.91483 5.76223
5.17631 7.99049 6.94078
7.73211 7.66103 4.40903
6.04630 6.21605 4.82245
6.99015 4.11558 4.87305
5.01786 4.98689 7.90069
4.46887 5.92348 4.19613
7.94108 7.51919 6.13863
6.34939 4.82893 6.15795
6.44218 6.52075 7.89904
7.94058 5.34586 5.73660
7.80491 5.62783 4.17521
6.23512 5.19537 5.51199
6.36471 5.75590 6.62135
7.06846 7.57102 4.09665
5.38089 4.88649 5.13353
7.62508 4.38311 4.57230
4.55743 6.00307 7.59000
4.09009 5.44507 5.45114
7.11584 4.77490 7.74225
5.63015 7.77886 6.11578
4.12523 6.40510 7.85654
5.82174 5.48681 7.64516
6.91551 5.09281 7.80003
6.93778 6.73418 4.88567
5.76955 6.53149 4.95525
4.74226 7.87643 4.44659
6.78997 6.21856 4.76289
6.34228 7.04363 6.86020
6.77944 5.85181 5.32301
4.57070 6.33819 6.58313
5.40195 6.39703 5.91459
5.51914 4.81384 4.08248
6.32508 7.84649 6.50289
7.90287 4.04617 5.96935
5.33765 4.98552 4.56044
7.85126 7.92824 7.19258
4.46456 4.49995 4.93718
7.61471 7.66757 7.94791
4.62958 6.99314 5.34611
7.90375 4.54213 6.47446
6.90675 7.64812 6.99671
7.18404 4.93689 7.91525
4.49749 4.22385 5.05465
7.62160 5.02139 7.61820
5.45200 7.93158 5.33685
5.77625 7.52305 5.46279
5.36712 7.68573 5.28296
7.33495 6.38521 7.29145
4.06466 4.43089 6.31431
5.10189 7.50981 5.61176
4.02627 4.58308 6.00446
6.36011 4.77350 4.20943
7.24957 4.82315 5.67854
6.25088 4.65423 6.08800
5.87917 5.58721 6.92119
4.81929 6.86370 7.49753
5.45566 7.54163 6.32662
6.44462 4.43894 7.46222
4.04313 7.38937 4.44288
7.63122 6.23297 6.63835
5.12668 7.96233 7.63336
5.46948 6.14291 4.37646
4.66964 5.94943 7.90698
5.32896 4.58942 5.71149
4.37045 6.99935 4.64846
7.56452 5.00107 7.07278
5.68635 6.53682 4.63331
5.30594 5.20012 7.41377
4.65344 6.19003 7.16986
6.08708 4.08188 4.93797
6.30426 4.40274 7.03901
6.55610 7.61040 4.62217
5.09718 7.63431 6.92286
5.86592 7.55946 5.16600
7.99751 5.64874 6.02032
6.42105 4.43302 4.13850
6.21961 5.09016 7.63766
6.27011 7.17182 7.57770
5.00775 4.20710 7.42374
4.26819 7.01835 5.38079
5.72898 6.54694 5.62577
4.52054 5.82481 4.00622
4.38830 7.51067 4.84355
4.39652 5.70815 5.94134
4.95192 7.58217 5.28096
5.61291 5.01720 4.28633
7.82366 7.45868 7.40394
5.51072 5.28447 7.91773
5.61392 7.96269 6.61640
7.61383 6.95726 7.65091
7.00206 5.06123 5.03159
5.74862 4.36240 5.61379
7.56877 5.07030 4.08321
6.06632 5.32365 5.77092
5.40211 6.01758 7.06685
6.26160 6.50294 4.24177
7.33752 4.68588 4.16283
5.13214 5.67018 5.15134
4.92134 6.96365 6.72540
7.81657 4.18729 4.11459
4.58898 4.39054 5.26587
5.31859 7.87888 5.05687
6.56745 5.75452 4.36382
6.35907 5.05113 6.47073
5.32976 5.62190 5.58782
5.55563 6.30191 6.55437
5.47905 5.42595 5.63429
6.36741 4.40929 5.40275
5.20438 6.16540 6.44524
7.63461 6.75562 4.20901
5.65751 5.64680 7.73053
6.36724 7.88171 5.99183
6.79253 7.34142 5.50446
6.77113 6.22008 7.74920
7.60227 4.77338 6.34781
7.48959 5.48321 5.28267
6.60511 5.80658 5.66884
4.36291 5.93424 6.43070
7.04634 6.86460 7.34429
6.90004 6.20599 5.66775
5.00558 5.05488 7.39947
4.54279 7.64853 5.36518
4.91280 4.55379 7.27665
4.13414 5.23252 5.54424
4.24268 6.64597 6.90688
5.38949 7.08800 5.10137
7.24960 7.40548 6.71241
5.30989 5.47191 6.90548
4.90713 5.63534 4.58571
5.62947 4.75450 5.40296
6.90264 6.25077 6.71805
6.14282 4.40086 6.38824
4.51826 5.85860 7.40534
4.17278 7.64403 7.38588
6.93886 7.23334 6.78546
7.40522 4.82667 5.80997
4.06476 6.85384 5.59709
4.43999 7.56507 6.92152
7.50246 5.99364 4.48830
5.59689 6.86403 7.91875
5.03057 5.02436 7.17270
7.39891 4.10946 6.03910
7.91492 7.14685 7.97392
6.86268 7.57008 5.54218
6.18159 5.21974 6.03479
7.84128 5.21366 6.17217
7.65535 4.52881 4.20715
5.06227 5.84158 7.70553
4.06128 7.47508 6.98844
7.95511 7.18911 5.44485
4.07676 5.52530 6.59026
6.86450 7.83476 5.48123
4.08858 6.56850 5.96282
4.60669 5.27476 4.62382
4.04757 4.29046 5.65186
7.44313 7.68116 6.00314
7.36178 4.69098 6.19266
6.05414 4.36638 5.36314
4.95082 4.75872 7.49256
6.30743 6.67299 5.28059
6.13018 4.40106 6.80809
5.45798 5.52690 4.60591
6.16344 4.13729 7.47508
6.38727 7.92837 7.79049
7.96145 4.62142 5.86923
6.67875 4.18272 4.38672
5.67682 4.59110 7.97148
6.16857 4.29804 5.64542
6.15664 6.67771 7.04115
7.37754 5.74179 6.02103
7.36230 6.07298 7.93083
6.36661 5.79814 7.87597
7.46682 5.11067 4.98988
5.20082 5.31798 4.56472
5.27095 7.08442 4.80882
6.17971 5.27990 5.21192
4.16740 4.94254 5.19343
7.02247 6.93256 4.56693
7.35714 7.03749 4.44735
5.52835 6.84791 5.65685
5.54746 7.11766 6.14570
4.66708 4.01874 6.64065
7.95031 4.43689 5.99137
4.98132 4.26100 4.01488
4.97279 6.17982 5.50786
4.98845 6.10124 6.66887
4.68157 6.23107 7.46410
4.12011 6.95724 7.73904
7.55974 7.02964 6.25146
6.16873 7.22710 7.06715
6.20824 6.89559 6.33866
4.57593 7.68991 6.20605
7.26115 6.03106 4.79178
7.28910 4.17633 4.10677
5.26755 6.04819 4.54708
7.69446 6.42570 7.11894
4.43233 7.01337 5.17457
5.82688 5.80832 7.48379
4.61728 4.13001 5.40056
5.77322 7.88802 7.91474
6.31443 5.06860 6.82338
7.70763 6.45787 6.65021
6.71329 5.26142 4.98354
6.65714 6.54444 5.49176
6.39464 4.16590 7.95915
6.34649 6.45733 5.90925
6.67368 7.49041 6.74750
7.89623 4.12140 5.53442
7.37996 7.39541 5.71425
5.19341 4.50170 6.24834
4.68136 5.96461 7.09355
4.13199 7.20483 4.85693
4.02821 7.15828 7.70472
4.18101 4.05665 7.02242
7.30315 5.80782 5.13108
4.61376 7.43735 7.24194
5.89950 4.43517 5.23675
6.84541 7.38562 6.61339
4.39795 6.06358 5.93788
5.76456 7.62313 4.10792
7.24464 7.49559 4.41672
5.08803 7.17490 7.16700
4.72910 7.11567 7.42039
4.35378 5.88248 5.54673
6.72697 7.01813 7.44032
7.72307 5.60794 6.98684
5.67692 5.27335 5.38460
7.36358 4.52558 4.65864
4.97635 7.77944 6.99111
5.55071 6.68205 7.54739
4.67386 4.26749 7.90675
7.63212 7.68730 4.05732
5.14810 5.98159 7.54539
4.50904 7.61235 4.44834
7.02742 4.29200 4.99653
6.33965 5.76516 4.53020
4.70534 5.61186 5.54207
5.02657 6.55245 6.50536
4.05092 4.98776 4.83669
5.54267 5.36480 4.91723
6.19605 7.61510 5.75198
5.38187 4.01242 4.50728
5.52124 4.47241 4.48879
6.15481 7.96427 7.38203
4.33478 7.08542 7.51078
4.52274 6.24445 4.19522
7.03389 6.87765 4.16284
7.73164 6.13584 6.44455
4.41190 5.40294 6.10471
7.18138 4.12402 4.63451
6.82173 7.50012 4.78212
6.06048 6.62382 4.00939
6.69092 4.14886 7.38480
5.76972 7.07143 4.57593
6.17519 6.23787 6.41774
7.06043 5.52149 6.82604
6.22926 7.13578 4.44034
6.88129 7.02276 4.35979
7.61920 5.75915 7.59156
7.74852 4.15808 4.44865
7.92978 5.96167 7.39367
7.35470 7.14116 6.01553
7.57627 5.41273 6.73255
6.64401 5.44716 4.63632
6.78454 4.21445 5.60458
4.52144 7.46403 4.08341
4.04804 4.62783 5.16821
5.00717 6.69828 5.98373
5.31750 7.54174 5.41734
5.22830 7.75138 7.73446
6.06063 5.96640 7.52342
6.43118 6.36833 5.08770
5.69294 5.92295 4.35193
6.52192 7.26756 7.42739
7.33742 6.22891 5.14938
5.24094 4.76476 5.96990
6.27856 6.93690 4.29540
7.92396 5.50066 6.70490
5.17661 7.59351 4.65943
5.18936 6.32308 4.55038
7.37525 4.40676 6.63034
6.58029 7.90332 6.45003
6.37362 7.67657 7.19741
5.84789 7.48763 6.70241
4.71426 7.97391 4.99050
6.07467 5.22027 7.35625
6.97481 7.20087 5.85203
5.10064 4.41218 4.69554
6.02196 4.61413 4.65130
4.83490 7.53611 7.71296
5.18829 7.35512 4.78057
4.39823 5.21669 5.12309
6.56816 4.26347 5.30413
7.16092 5.18525 6.99850
7.57423 6.38164 4.10792
4.36038 6.58833 5.22516
5.72004 5.93486 7.06591
4.88386 6.50502 4.38750
6.90619 4.55129 6.92805
4.06491 5.63097 5.98400
7.57313 7.13615 4.94971
7.20379 5.66960 4.58325
6.91527 5.45441 4.25309
6.64800 5.72869 6.21143
7.05167 7.39884 4.35228
5.91444 7.28841 6.91929
7.65220 4.26735 4.83105
7.68364 4.77603 4.98609
7.99684 7.77262 4.20132
4.98106 4.58013 6.36040
6.82924 5.12485 5.84784
7.00914 6.00010 4.46082
5.20477 5.02603 7.96530
6.88924 6.20381 6.47600
7.38675 6.02900 6.89354
4.14185 6.22360 6.03968
6.49012 7.71732 6.31811
7.81550 7.88956 5.71623
6.43526 4.32745 6.83822
6.32654 7.67988 5.13873
4.66430 7.96296 6.52710
7.11189 4.32580 4.79239
7.24622 5.86306 4.14982
7.40188 7.01983 7.35196
4.87473 4.18703 4.59722
4.06400 7.96593 4.00540
4.22196 4.66918 6.05033
6.86715 7.21565 4.04285
6.60369 7.47726 7.66610
6.47441 4.87737 6.74482
5.47015 6.16896 7.57989
4.11757 7.05426 6.89808
5.64650 5.27692 6.91337
7.03237 5.34429 7.59721
5.52480 6.68510 7.01574
7.77687 7.27874 6.54249
5.38361 6.45444 4.92417
7.72547 5.23752 4.25733
5.85197 6.12468 7.92409
7.73298 5.86084 4.87969
6.05651 6.85214 6.20604
5.28613 7.90821 5.89644
6.42047 6.50767 6.71963
5.77139 7.89653 7.69288
4.97909 7.44734 5.13216
6.61973 5.26117 5.24204
7.00034 4.28056 7.56444
5.82626 4.91874 4.56543
7.44610 4.05736 4.01607
5.04319 7.55472 4.37130
6.62855 7.86656 7.04702
4.46068 6.35310 5.29264
7.41994 4.17446 7.99056
7.46577 4.61585 5.49063
6.07115 6.05149 7.09567
7.54331 4.33775 7.38962
4.89088 4.58789 6.08377
6.28235 7.54880 6.25051
5.54901 4.32336 7.67246
7.69003 6.75755 7.16165
6.86805 5.63098 4.86476
7.30052 4.30942 7.88427
7.58418 6.16494 6.05421
4.26949 5.70920 4.05173
6.04326 5.75585 5.30478
7.87594 5.94289 5.17880
6.78910 7.07512 7.05184
4.39140 4.14111 4.41408
7.78768 6.83187 5.80820
7.61690 6.52686 7.97436
5.69996 5.76115 6.07298
7.47864 7.57605 4.42485
7.16781 6.65735 4.64395
4.04346 5.87529 6.79652
6.47586 5.09666 5.35484
7.27400 5.40593 7.62419
7.02920 4.16255 4.21525
5.81183 7.51124 7.48472
7.08380 5.55797 5.02800
5.01287 5.55175 7.52861
4.30084 5.61839 5.46617
5.75887 6.14680 5.82863
4.40078 6.77153 7.90066
6.89872 5.93507 6.07146
4.53807 7.66594 4.80967
5.35311 4.34520 5.77770
5.16616 5.61849 5.37292
6.60004 6.27801 6.34160
4.43656 4.63691 6.35734
7.08640 5.75696 5.34637
6.98425 5.66116 7.58270
6.26782 4.16574 4.79835
5.26362 5.95638 4.33213
5.09234 5.02291 4.86952
4.53259 4.28091 5.56036
5.64219 6.33462 5.36511
5.21518 5.95733 6.79483
4.44541 7.23350 6.58666
6.33358 7.90842 7.14199
5.55865 6.08172 5.62323
5.66914 6.68050 7.17481
5.74190 6.22248 4.58140
7.53979 6.53555 5.95408
5.30166 7.14060 5.88931
5.66432 6.93101 5.06984
4.36670 4.33642 7.29578
5.27162 4.35587 4.60372
5.92258 6.75563 7.70456
7.42632 5.05742 5.50261
6.08818 7.05881 4.04631
4.97306 6.54066 6.95243
6.52326 5.11017 7.73146
4.10212 6.88849 7.09261
7.67027 4.10664 7.82960
4.13260 7.38555 7.58733
4.33708 6.39741 5.71136
7.99946 6.14618 5.53765
4.91686 6.92012 7.10390
4.45490 7.57925 7.45284
6.52530 4.68922 7.18082
4.23475 4.07748 5.42845

CELLS 0 0
CELL_TYPES 0
POINT_DATA 800
SCALARS m double
LOOKUP_TABLE default
1.000000
1.000000
1.000000
1.000000
1.000000
1.000000
1.000000
1.000000
1.000000
1.000000
1.000000
1.000000
1.000000
1.000000
1.000000
1.000000
1.000000
1.000000
1.000000
1.000000
1.000000
1.000000
1.000000
1.000000
1.000000
1.000000
1.000000
1.000000
1.000000
1.000000
1.000000
1.000000
1.000000
1.000000
1.000000
1.000000
1.000000
1.000000
1.000000
1.000000
1.000000
1.000000
1.000000
1.000000
1.000000
1.000000
1.000000
1.000000
1.000000
1.000000
1.000000
1.000000
1.000000
1.000000
1.000000
1.000000
1.000000
1.000000
1.000000
1.000000
1.000000
1.000000
1.000000
1.000000
1.000000
1.000000
1.000000
1.000000
1.000000
1.000000
1.000000
1.000000
1.000000
1.000000
1.000000
1.000000
1.000000
1.000000
1.000000
1.000000
1.000000
1.000000
1.000000
1.000000
1.000000
1.000000
1.000000
1.000000
1.000000
1.000000
1.000000
1.000000
1.000000
1.000000
1.000000
1.000000
1.000000
1.000000
1.000000
1.000000
1.000000
1.000000
1.000000
1.000000
1.000000
1.000000
1.000000
1.000000
1.000000
1.000000
1.000000
1.000000
1.000000
1.000000
1.000000
1.000000
1.000000
1.000000
1.000000
1.000000
1.000000
1.000000
1.000000
1.000000
1.000000
1.000000
1.000000
1.000000
1.000000
1.000000
1.000000
1.000000
1.000000
1.000000
1.000000
1.000000
1.000000
1.000000
1.000000
1.000000
1.000000
1.000000
1.000000
1.000000
1.000000
1.000000
1.000000
1.000000
1.000000
1.000000
1.000000
1.000000
1.000000
1.000000
1.000000
1.000000
1.000000
1.000000
1.000000
1.000000
1.000000
1.000000
1.000000
1.000000
1.000000
1.000000
1.000000
1.000000
1.000000
1.000000
1.000000
1.000000
1.000000
1.000000
1.000000
1.000000
1.000000
1.000000
1.000000
1.000000
1.000000
1.000000
1.000000
1.000000
1.000000
1.000000
1.000000
1.000000
1.000000
1.000000
1.000000
1.000000
1.000000
1.000000
1.000000
1.000000
1.000000
1.000000
1.000000
1.000000
1.000000
1.000000
1.000000
1.000000
1.000000
1.000000
1.000000
1.000000
1.000000
1.000000
1.000000
1.000000
1.000000
1.000000
1.000000
1.000000
1.000000
1.000000
1.000000
1.000000
1.000000
1.000000
1.000000
1.000000
1.000000
1.000000
1.000000
1.000000
1.000000
1.000000
1.000000
1.000000
1.000000
1.000000
1.000000
1.000000
1.000000
1.000000
1.000000
1.000000
1.000000
1.000000
1.000000
1.000000
1.000000
1.000000
1.000000
1.000000
1.000000
1.000000
1.000000
1.000000
1.000000
1.000000
1.000000
1.000000
1.000000
1.000000
1.000000
1.000000
1.000000
1.000000
1.000000
1.000000
1.000000
1.000000
1.000000
1.000000
1.000000
1.000000
1.000000
1.000000
1.000000
1.000000
1.000000
1.000000
1.000000
1.000000
1.000000
1.000000
1.000000
1.000000
1.000000
1.000000
1.000000
1.000000
1.000000
1.000000
1.000000
1.000000
1.000000
1.000000
1.000000
1.000000
1.000000
1.000000
1.000000
1.000000
1.000000
1.000000
1.000000
1.000000
1.000000
1.000000
1.000000
1.000000
1.000000
1.000000
1.000000
1.000000
1.000000
1.000000
1.000000
1.000000
1.000000
1.000000
1.000000
1.000000
1.000000
1.000000
1.000000
1.000000
1.000000
1.000000
1.000000
1.000000
1.000000
1.000000
1.000000
1.000000
1.000000
1.000000
1.000000
1.000000
1.000000
1.000000
1.000000
1.000000
1.000000
1.000000
1.000000
1.000000
1.000000
1.000000
1.000000
1.000000
1.000000
1.000000
1.000000
1.000000
1.000000
1.000000
1.000000
1.000000
1.000000
1.000000
1.000000
1.000000
1.000000
1.000000
1.000000
1.000000
1.000000
1.000000
1.000000
1.000000
1.000000
1.000000
1.000000
1.000000
1.000000
1.000000
1.000000
1.000000
1.000000
1.000000
1.000000
1.000000
1.000000
1.000000
1.000000
1.000000
1.000000
1.000000
1.000000
1.000000
1.000000
1.000000
1.000000
1.000000
1.000000
1.000000
1.000000
1.000000
1.000000
1.000000
1.000000
1.000000
1.000000
1.000000
1.000000
1.000000
1.000000
1.000000
1.000000
1.000000
1.000000
1.000000
1.000000
1.000000
1.000000
1.000000
1.000000
1.000000
1.000000
1.000000
1.000000
1.000000
1.000000
1.000000
1.000000
1.000000
1.000000
1.000000
1.000000
1.000000
1.000000
1.000000
1.000000
1.000000
1.000000
1.000000
1.000000
1.000000
1.000000
1.000000
1.000000
1.000000
1.000000
1.000000
1.000000
1.000000
1.000000
1.000000
1.000000
1.000000
1.000000
1.000000
1.000000
1.000000
1.000000
1.000000
1.000000
1.000000
1.000000
1.000000
1.000000
1.000000
1.000000
1.000000
1.000000
1.000000
1.000000
1.000000
1.000000
1.000000
1.000000
1.000000
1.000000
1.000000
1.000000
1.000000
1.000000
1.000000
1.000000
1.000000
1.000000
1.000000
1.000000
1.000000
1.000000
1.000000
1.000000
1.000000
1.000000
1.000000
1.000000
1.000000
1.000000
1.000000
1.000000
1.000000
1.000000
1.000000
1.000000
1.000000
1.000000
1.000000
1.000000
1.000000
1.000000
1.000000
1.000000
1.000000
1.000000
1.000000
1.000000
1.000000
1.000000
1.000000
1.000000
1.000000
1.000000
1.000000
1.000000
1.000000
1.000000
1.000000
1.000000
1.000000
1.000000
1.000000
1.000000
1.000000
1.000000
1.000000
1.000000
1.000000
1.000000
1.000000
1.000000
1.000000
1.000000
1.000000
1.000000
1.000000
1.000000
1.000000
1.000000
1.000000
1.000000
1.000000
1.000000
1.000000
1.000000
1.000000
1.000000
1.000000
1.000000
1.000000
1.000000
1.000000
1.000000
1.000000
1.000000
1.000000
1.000000
1.000000
1.000000
1.000000
1.000000
1.000000
1.000000
1.000000
1.000000
1.000000
1.000000
1.000000
1.000000
1.000000
1.000000
1.000000
1.000000
1.000000
1.000000
1.000000
1.000000
1.000000
1.000000
1.000000
1.000000
1.000000
1.000000
1.000000
1.000000
1.000000
1.000000
1.000000
1.000000
1.000000
1.000000
1.000000
1.000000
1.000000
1.000000
1.000000
1.000000
1.000000
1.000000
1.000000
1.000000
1.000000
1.000000
1.000000
1.000000
1.000000
1.000000
1.000000
1.000000
1.000000
1.000000
1.000000
1.000000
1.000000
1.000000
1.000000
1.000000
1.000000
1.000000
1.000000
1.000000
1.000000
1.000000
1.000000
1.000000
1.000000
1.000000
1.000000
1.000000
1.000000
1.000000
1.000000
1.000000
1.000000
1.000000
1.000000
1.000000
1.000000
1.000000
1.000000
1.000000
1.000000
1.000000
1.000000
1.000000
1.000000
1.000000
1.000000
1.000000
1.000000
1.000000
1.000000
1.000000
1.000000
1.000000
1.000000
1.000000
1.000000
1.000000
1.000000
1.000000
1.000000
1.000000
1.000000
1.000000
1.000000
1.000000
1.000000
1.000000
1.000000
1.000000
1.000000
1.000000
1.000000
1.000000
1.000000
1.000000
1.000000
1.000000
1.000000
1.000000
1.000000
1.000000
1.000000
1.000000
1.000000
1.000000
1.000000
1.000000
1.000000
1.000000
1.000000
1.000000
1.000000
1.000000
1.000000
1.000000
1.000000
1.000000
1.000000
1.000000
1.000000
1.000000
1.000000
1.000000
1.000000
1.000000
1.000000
1.000000
1.000000
1.000000
1.000000
1.000000
1.000000
1.000000
1.000000
1.000000
1.000000
1.000000
1.000000
1.000000
1.000000
1.000000
1.000000
1.000000
1.000000
1.000000
1.000000
1.000000
1.000000
1.000000
1.000000
1.000000
1.000000
1.000000
1.000000
1.000000
1.000000
1.000000
1.000000
1.000000
1.000000
1.000000
1.000000
1.000000
1.000000
1.000000
1.000000
1.000000
1.000000
1.000000
1.000000
1.000000
1.000000
1.000000
1.000000
1.000000
1.000000
1.000000
1.000000
1.000000
1.000000
1.000000
1.000000
1.000000
1.000000
1.000000
1.000000
1.000000
1.000000
1.000000
1.000000
1.000000
1.000000
1.000000
1.000000
1.000000
1.000000
1.000000
1.000000
1.000000
1.000000
1.000000
1.000000
1.000000
1.000000
1.000000
1.000000
1.000000
1.000000
1.000000
1.000000
1.000000
1.000000
1.000000
1.000000
1.000000
1.000000
1.000000
1.000000

VECTORS v double
-1.000000 0.000000 0.000000
-1.000000 0.000000 0.000000
-1.000000 0.000000 0.000000
-1.000000 0.000000 0.000000
-1.000000 0.000000 0.000000
-1.000000 0.000000 0.000000
-1.000000 0.000000 0.000000
-1.000000 0.000000 0.000000
-1.000000 0.000000 0.000000
-1.000000 0.000000 0.000000
-1.000000 0.000000 0.000000
-1.000000 0.000000 0.000000
-1.000000 0.000000 0.000000
-1.000000 0.000000 0.000000
-1.000000 0.000000 0.000000
-1.000000 0.000000 0.000000
-1.000000 0.000000 0.000000
-1.000000 0.000000 0.000000
-1.000000 0.000000 0.000000
-1.000000 0.000000 0.000000
-1.000000 0.000000 0.000000
-1.000000 0.000000 0.000000
-1.000000 0.000000 0.000000
-1.000000 0.000000 0.000000
-1.000000 0.000000 0.000000
-1.000000 0.000000 0.000000
-1.000000 0.000000 0.000000
-1.000000 0.000000 0.000000
-1.000000 0.000000 0.000000
-1.000000 0.000000 0.000000
-1.000000 0.000000 0.000000
-1.000000 0.000000 0.000000
-1.000000 0.000000 0.000000
-1.000000 0.000000 0.000000
-1.000000 0.000000 0.000000
-1.000000 0.000000 0.000000
-1.000000 0.000000 0.000000
-1.000000 0.000000 0.000000
-1.000000 0.000000 0.000000
-1.000000 0.000000 0.000000
-1.000000 0.000000 0.000000
-1.000000 0.000000 0.000000
-1.000000 0.000000 0.000000
-1.000000 0.000000 0.000000
-1.000000 0.000000 0.000000
-1.000000 0.000000 0.000000
-1.000000 0.000000 0.000000
-1.000000 0.000000 0.000000
-1.000000 0.000000 0.000000
-1.000000 0.000000 0.000000
-1.000000 0.000000 0.000000
-1.000000 0.000000 0.000000
-1.000000 0.000000 0.000000
-1.000000 0.000000 0.000000
-1.000000 0.000000 0.000000
-1.000000 0.000000 0.000000
-1.000000 0.000000 0.000000
-1.000000 0.000000 0.000000
-1.000000 0.000000 0.000000
-1.000000 0.000000 0.000000
-1.000000 0.000000 0.000000
-1.000000 0.000000 0.000000
-1.000000 0.000000 0.000000
-1.000000 0.000000 0.000000
-1.000000 0.000000 0.000000
-1.000000 0.000000 0.000000
-1.000000 0.000000 0.000000
-1.000000 0.000000 0.000000
-1.000000 0.000000 0.000000
-1.000000 0.000000 0.000000
-1.000000 0.000000 0.000000
-1.000000 0.000000 0.000000
-1.000000 0.000000 0.000000
-1.000000 0.000000 0.000000
-1.000000 0.000000 0.000000
-1.000000 0.000000 0.000000
-1.000000 0.000000 0.000000
-1.000000 0.000000 0.000000
-1.000000 0.000000 0.000000
-1.000000 0.000000 0.000000
-1.000000 0.000000 0.000000
-1.000000 0.000000 0.000000
-1.000000 0.000000 0.000000
-1.000000 0.000000 0.000000
-1.000000 0.000000 0.000000
-1.000000 0.000000 0.000000
-1.000000 0.000000 0.000000
-1.000000 0.000000 0.000000
-1.000000 0.000000 0.000000
-1.000000 0.000000 0.000000
-1.000000 0.000000 0.000000
-1.000000 0.000000 0.000000
-1.000000 0.000000 0.000000
-1.000000 0.000000 0.000000
-1.000000 0.000000 0.000000
-1.000000 0.000000 0.000000
-1.000000 0.000000 0.000000
-1.000000 0.000000 0.000000
-1.000000 0.000000 0.000000
-1.000000 0.000000 0.000000
-1.000000 0.000000 0.000000
-1.000000 0.000000 0.000000
-1.000000 0.000000 0.000000
-1.000000 0.000000 0.000000
-1.000000 0.000000 0.000000
-1.000000 0.000000 0.000000
-1.000000 0.000000 0.000000
-1.000000 0.000000 0.000000
-1.000000 0.000000 0.000000
-1.000000 0.000000 0.000000
-1.000000 0.000000 0.000000
-1.000000 0.000000 0.000000
-1.000000 0.000000 0.000000
-1.000000 0.000000 0.000000
-1.000000 0.000000 0.000000
-1.000000 0.000000 0.000000
-1.000000 0.000000 0.000000
-1.000000 0.000000 0.000000
-1.000000 0.000000 0.000000
-1.000000 0.000000 0.000000
-1.000000 0.000000 0.000000